                         Program Version 5.0.3 -  RELEASE  -
|  1>  ! B3LYP 6-31g* OPT ANFREQ NoFrozenCore
|  2>
|  3> *xyz 0 1
|  4>
|  5>  C     0.000000     0.000000     0.000000
|  6>  C     0.000000     0.000000     1.200000
|  7>  C     1.212436     0.000000     1.900000
|  8>  C     2.424871     0.000000     1.200000
|  9>  C     2.424871     0.000000    -0.200000
| 10>  C     1.212436     0.000000    -0.900000
| 11>  H     1.212436     0.000000     2.989000
| 12>  H     3.367973     0.000000     1.744500
| 13>  H     3.367973     0.000000    -0.744500
| 14>  H     1.212436     0.000000    -1.989000
| 15> **                         ****END OF INPUT****
 Total Charge           Charge          ....    0
 Multiplicity           Mult            ....    1
 Number of Electrons    NEL             ....   40
FINAL SINGLE POINT ENERGY      -230.735811235830
FINAL SINGLE POINT ENERGY      -230.754700779519
FINAL SINGLE POINT ENERGY      -230.757067099659
FINAL SINGLE POINT ENERGY      -230.757472430127
FINAL SINGLE POINT ENERGY      -230.757599701251
FINAL SINGLE POINT ENERGY      -230.757621066797
FINAL SINGLE POINT ENERGY      -230.757645520693
FINAL SINGLE POINT ENERGY      -230.757657202297
FINAL SINGLE POINT ENERGY      -230.757662733967
FINAL SINGLE POINT ENERGY      -230.757664180674
                    ***********************HURRAY********************

CARTESIAN COORDINATES (ANGSTROEM)
---------------------------------
  C      0.087052   -0.000003   -0.091634
  C      0.098132   -0.000003    1.159772
  C      1.210085    0.000003    1.985996
  C      2.396194    0.000000    1.217171
  C      2.383472    0.000000   -0.190705
  C      1.183733    0.000003   -0.937947
  H      1.219108    0.000001    3.071434
  H      3.353426   -0.000001    1.734758
  H      3.331220   -0.000002   -0.725476
  H      1.173011    0.000001   -2.023370

 Multiplicity           Mult            ....    1
 Number of Electrons    NEL             ....   40
 Basis Dimension        Dim             ....   92

ORBITAL ENERGIES
----------------

  NO   OCC          E(Eh)            E(eV)
   0   2.0000     -10.211306      -277.8638
   1   2.0000     -10.211292      -277.8634
   2   2.0000     -10.194375      -277.4030
   3   2.0000     -10.193981      -277.3923
   4   2.0000     -10.188968      -277.2559
   5   2.0000     -10.187403      -277.2133
   6   2.0000      -0.862278       -23.4638
   7   2.0000      -0.751427       -20.4474
   8   2.0000      -0.735961       -20.0265
   9   2.0000      -0.613210       -16.6863
  10   2.0000      -0.575598       -15.6628
  11   2.0000      -0.502911       -13.6849
  12   2.0000      -0.460931       -12.5426
  13   2.0000      -0.448476       -12.2037
  14   2.0000      -0.389880       -10.6092
  15   2.0000      -0.382837       -10.4175
  16   2.0000      -0.374783       -10.1984
  17   2.0000      -0.256539        -6.9808
  18   2.0000      -0.255179        -6.9438
  19   2.0000      -0.254854        -6.9349
  20   0.0000      -0.066611        -1.8126
  21   0.0000      -0.014931        -0.4063
  22   0.0000       0.019636         0.5343
  23   0.0000       0.107355         2.9213
  24   0.0000       0.141819         3.8591

MULLIKEN ATOMIC CHARGES
-----------------------
   0 C :   -0.008066
   1 C :   -0.008166
   2 C :   -0.147378
   3 C :   -0.128774
   4 C :   -0.128848
   5 C :   -0.147329
   6 H :    0.144721
   7 H :    0.139535
   8 H :    0.139561
   9 H :    0.144744
Sum of atomic charges:   -0.0000000

LOEWDIN ATOMIC CHARGES
----------------------
   0 C :   -0.031196
   1 C :   -0.031371
   2 C :   -0.118780
   3 C :   -0.126451
   4 C :   -0.126429
   5 C :   -0.118828
   6 H :    0.138439
   7 H :    0.138073
   8 H :    0.138081
   9 H :    0.138461

  Mayer bond orders larger than 0.100000
B(  0-C ,  1-C ) :   2.2832 B(  0-C ,  5-C ) :   1.4324 B(  1-C ,  2-C ) :   1.4323
B(  2-C ,  3-C ) :   1.4476 B(  2-C ,  5-C ) :   0.1277 B(  2-C ,  6-H ) :   0.9213
B(  3-C ,  4-C ) :   1.4540 B(  3-C ,  7-H ) :   0.9211 B(  4-C ,  5-C ) :   1.4475
B(  4-C ,  8-H ) :   0.9211 B(  5-C ,  9-H ) :   0.9213

FINAL SINGLE POINT ENERGY      -230.757664588137

DIPOLE MOMENT
-------------
                                X             Y             Z
Electronic contribution:     -3.13266      -0.00000       0.02796
Nuclear contribution   :      3.70579      -0.00000      -0.03355
                        -----------------------------------------
Total Dipole Moment    :      0.57313      -0.00000      -0.00558
                        -----------------------------------------
Magnitude (a.u.)       :      0.57316
Magnitude (Debye)      :      1.45685

VIBRATIONAL FREQUENCIES
-----------------------

Scaling factor for frequencies =  1.000000000  (already applied!)

   0:         0.00 cm**-1
   1:         0.00 cm**-1
   2:         0.00 cm**-1
   3:         0.00 cm**-1
   4:         0.00 cm**-1
   5:         0.00 cm**-1
   6:       395.15 cm**-1
   7:       406.98 cm**-1
   8:       437.83 cm**-1
   9:       596.32 cm**-1
  10:       621.70 cm**-1
  11:       754.50 cm**-1
  12:       843.15 cm**-1
  13:       870.81 cm**-1
  14:       914.11 cm**-1
  15:       962.53 cm**-1
  16:      1007.51 cm**-1
  17:      1086.02 cm**-1
  18:      1116.03 cm**-1
  19:      1171.53 cm**-1
  20:      1285.53 cm**-1
  21:      1327.85 cm**-1
  22:      1437.71 cm**-1
  23:      1485.96 cm**-1
  24:      1501.14 cm**-1
  25:      2023.54 cm**-1
  26:      3175.91 cm**-1
  27:      3191.65 cm**-1
  28:      3214.32 cm**-1
  29:      3218.27 cm**-1

IR SPECTRUM
-----------

 Mode   freq       eps      Int      T**2         TX        TY        TZ
       cm**-1   L/(mol*cm) km/mol    a.u.
----------------------------------------------------------------------------
  6:    395.15   0.000746    3.77  0.000589  ( 0.000001  0.024270  0.000001)
  7:    406.98   0.021818  110.26  0.016729  (-0.001129  0.000000 -0.129337)
  8:    437.83   0.000000    0.00  0.000000  (-0.000000  0.000011 -0.000005)
  9:    596.32   0.000000    0.00  0.000000  (-0.000000  0.000011  0.000012)
 10:    621.70   0.000097    0.49  0.000049  (-0.006968 -0.000000  0.000036)
 11:    754.50   0.011598   58.61  0.004797  ( 0.000001 -0.069260 -0.000001)
 12:    843.15   0.005597   28.29  0.002072  ( 0.000391 -0.000000  0.045513)
 13:    870.81   0.000000    0.00  0.000000  (-0.000000  0.000001  0.000003)
 14:    914.11   0.000019    0.10  0.000007  (-0.000001  0.002579 -0.000000)
 15:    962.53   0.000000    0.00  0.000000  (-0.000000  0.000003 -0.000005)
 16:   1007.51   0.000868    4.39  0.000269  (-0.016398 -0.000000  0.000161)
 17:   1086.02   0.004336   21.91  0.001246  (-0.035298 -0.000000  0.000326)
 18:   1116.03   0.000195    0.98  0.000054  ( 0.000075  0.000000  0.007375)
 19:   1171.53   0.000028    0.14  0.000007  ( 0.002706  0.000000 -0.000040)
 20:   1285.53   0.000000    0.00  0.000000  ( 0.000002  0.000000  0.000263)
 21:   1327.85   0.000142    0.72  0.000033  (-0.005785 -0.000000  0.000051)
 22:   1437.71   0.000841    4.25  0.000183  (-0.000139  0.000000 -0.013510)
 23:   1485.96   0.002592   13.10  0.000544  (-0.000199  0.000000 -0.023332)
 24:   1501.14   0.000096    0.49  0.000020  ( 0.004476  0.000000 -0.000062)
 25:   2023.54   0.000038    0.19  0.000006  (-0.002417 -0.000000 -0.000006)
 26:   3175.91   0.000311    1.57  0.000031  (-0.000019 -0.000000 -0.005532)
 27:   3191.65   0.001555    7.86  0.000152  (-0.012330  0.000000  0.000106)
 28:   3214.32   0.008301   41.95  0.000806  (-0.000253  0.000000 -0.028388)
 29:   3218.27   0.001071    5.41  0.000104  ( 0.010188  0.000000 -0.000075)

--------------------------
THERMOCHEMISTRY AT 298.15K
--------------------------

Temperature         ... 298.15 K
Pressure            ... 1.00 atm
Total Mass          ... 76.10 AMU

Throughout the following assumptions are being made:
  (1) The electronic state is orbitally nondegenerate
  (2) There are no thermally accessible electronically excited states
  (3) Hindered rotations indicated by low frequency modes are not
      treated as such but are treated as vibrations and this may
      cause some error
  (4) All equations used are the standard statistical mechanics
      equations for an ideal gas
  (5) All vibrations are strictly harmonic

freq.     395.15  E(vib)   ...       0.20
freq.     406.98  E(vib)   ...       0.19
freq.     437.83  E(vib)   ...       0.17
freq.     596.32  E(vib)   ...       0.10
freq.     621.70  E(vib)   ...       0.09
freq.     754.50  E(vib)   ...       0.06
freq.     843.15  E(vib)   ...       0.04
freq.     870.81  E(vib)   ...       0.04
freq.     914.11  E(vib)   ...       0.03
freq.     962.53  E(vib)   ...       0.03
freq.    1007.51  E(vib)   ...       0.02
freq.    1086.02  E(vib)   ...       0.02
freq.    1116.03  E(vib)   ...       0.01
freq.    1171.53  E(vib)   ...       0.01
freq.    1285.53  E(vib)   ...       0.01
freq.    1327.85  E(vib)   ...       0.01
freq.    1437.71  E(vib)   ...       0.00
freq.    1485.96  E(vib)   ...       0.00
freq.    1501.14  E(vib)   ...       0.00
freq.    2023.54  E(vib)   ...       0.00
freq.    3175.91  E(vib)   ...       0.00
freq.    3191.65  E(vib)   ...       0.00
freq.    3214.32  E(vib)   ...       0.00
freq.    3218.27  E(vib)   ...       0.00

------------
INNER ENERGY
------------

The inner energy is: U= E(el) + E(ZPE) + E(vib) + E(rot) + E(trans)
    E(el)   - is the total energy from the electronic structure calculation
              = E(kin-el) + E(nuc-el) + E(el-el) + E(nuc-nuc)
    E(ZPE)  - the the zero temperature vibrational energy from the frequency calculation
    E(vib)  - the the finite temperature correction to E(ZPE) due to population
              of excited vibrational states
    E(rot)  - is the rotational thermal energy
    E(trans)- is the translational thermal energy

Summary of contributions to the inner energy U:
Electronic energy                ...   -230.75766459 Eh
Zero point energy                ...      0.07528440 Eh      47.24 kcal/mol
Thermal vibrational correction   ...      0.00165821 Eh       1.04 kcal/mol
Thermal rotational correction    ...      0.00141627 Eh       0.89 kcal/mol
Thermal translational correction ...      0.00141627 Eh       0.89 kcal/mol
-----------------------------------------------------------------------
Total thermal energy                   -230.67788943 Eh

Summary of corrections to the electronic energy:
(perhaps to be used in another calculation)
Total thermal correction                  0.00449076 Eh       2.82 kcal/mol
Non-thermal (ZPE) correction              0.07528440 Eh      47.24 kcal/mol
-----------------------------------------------------------------------
Total correction                          0.07977515 Eh      50.06 kcal/mol

--------
ENTHALPY
--------

The enthalpy is H = U + kB*T
                kB is Boltzmann's constant
Total free energy                 ...   -230.67788943 Eh
Thermal Enthalpy correction       ...      0.00094421 Eh       0.59 kcal/mol
-----------------------------------------------------------------------
Total Enthalpy                    ...   -230.67694523 Eh

Note: Rotational entropy computed according to Herzberg
Infrared and Raman Spectra, Chapter V,1, Van Nostrand Reinhold, 1945
Point Group:  Cs, Symmetry Number:   1
Rotational constants in cm-1:     0.233426     0.189855     0.104699

Vibrational entropy computed according to the QRRHO of S. Grimme
Chem.Eur.J. 2012 18 9955

-------
ENTROPY
-------

The entropy contributions are T*S = T*(S(el)+S(vib)+S(rot)+S(trans))
     S(el)   - electronic entropy
     S(vib)  - vibrational entropy
     S(rot)  - rotational entropy
     S(trans)- translational entropy
The entropies will be listed as multiplied by the temperature to get
units of energy

Electronic entropy                ...      0.00000000 Eh      0.00 kcal/mol
Vibrational entropy               ...      0.00228279 Eh      1.43 kcal/mol
Rotational entropy                ...      0.01204737 Eh      7.56 kcal/mol
Translational entropy             ...      0.01848439 Eh     11.60 kcal/mol
-----------------------------------------------------------------------
Final entropy term                ...      0.03281455 Eh     20.59 kcal/mol

In case the symmetry of your molecule has not been determined correctly
or in case you have a reason to use a different symmetry number we print
out the resulting rotational entropy values for sn=1,12 :
 --------------------------------------------------------
|  sn= 1 | S(rot)=       0.01204737 Eh      7.56 kcal/mol|
|  sn= 2 | S(rot)=       0.01139292 Eh      7.15 kcal/mol|
|  sn= 3 | S(rot)=       0.01101009 Eh      6.91 kcal/mol|
|  sn= 4 | S(rot)=       0.01073846 Eh      6.74 kcal/mol|
|  sn= 5 | S(rot)=       0.01052777 Eh      6.61 kcal/mol|
|  sn= 6 | S(rot)=       0.01035563 Eh      6.50 kcal/mol|
|  sn= 7 | S(rot)=       0.01021008 Eh      6.41 kcal/mol|
|  sn= 8 | S(rot)=       0.01008401 Eh      6.33 kcal/mol|
|  sn= 9 | S(rot)=       0.00997280 Eh      6.26 kcal/mol|
|  sn=10 | S(rot)=       0.00987332 Eh      6.20 kcal/mol|
|  sn=11 | S(rot)=       0.00978333 Eh      6.14 kcal/mol|
|  sn=12 | S(rot)=       0.00970117 Eh      6.09 kcal/mol|
 --------------------------------------------------------

-------------------
GIBBS FREE ENERGY
-------------------

The Gibbs free energy is G = H - T*S

Total enthalpy                    ...   -230.67694523 Eh
Total entropy correction          ...     -0.03281455 Eh    -20.59 kcal/mol
-----------------------------------------------------------------------
Final Gibbs free energy         ...   -230.70975978 Eh

For completeness - the Gibbs free energy minus the electronic energy
G-E(el)                           ...      0.04790481 Eh     30.06 kcal/mol

                             ****ORCA TERMINATED NORMALLY****
TOTAL RUN TIME: 0 days 0 hours 8 minutes 34 seconds 778 msec
