                         Program Version 5.0.3 -  RELEASE  -
|  1>  ! MP2 6-31g* OPT ANFREQ NoFrozenCore
|  2>
|  3> *xyz 0 1
|  4>
|  5>  C     0.000000     0.000000     0.000000
|  6>  C     0.000000     0.000000     1.200000
|  7>  C     1.212436     0.000000     1.900000
|  8>  C     2.424871     0.000000     1.200000
|  9>  C     2.424871     0.000000    -0.200000
| 10>  C     1.212436     0.000000    -0.900000
| 11>  H     1.212436     0.000000     2.989000
| 12>  H     3.367973     0.000000     1.744500
| 13>  H     3.367973     0.000000    -0.744500
| 14>  H     1.212436     0.000000    -1.989000
| 15> *
| 16>
| 17>                          ****END OF INPUT****
 Total Charge           Charge          ....    0
 Multiplicity           Mult            ....    1
 Number of Electrons    NEL             ....   40
MP2 TOTAL ENERGY:     -230.143242509 Eh
FINAL SINGLE POINT ENERGY      -230.143242509014
MP2 TOTAL ENERGY:     -230.165981875 Eh
FINAL SINGLE POINT ENERGY      -230.165981874670
MP2 TOTAL ENERGY:     -230.168189984 Eh
FINAL SINGLE POINT ENERGY      -230.168189983680
MP2 TOTAL ENERGY:     -230.168504979 Eh
FINAL SINGLE POINT ENERGY      -230.168504978527
MP2 TOTAL ENERGY:     -230.168592427 Eh
FINAL SINGLE POINT ENERGY      -230.168592427355
MP2 TOTAL ENERGY:     -230.168607312 Eh
FINAL SINGLE POINT ENERGY      -230.168607312009
MP2 TOTAL ENERGY:     -230.168611575 Eh
FINAL SINGLE POINT ENERGY      -230.168611575479
                    ***********************HURRAY********************

CARTESIAN COORDINATES (ANGSTROEM)
---------------------------------
  C      0.079308    0.000000   -0.100305
  C      0.090467    0.000000    1.168784
  C      1.214733   -0.000000    1.987513
  C      2.392883    0.000000    1.218931
  C      2.380148    0.000000   -0.192504
  C      1.188123   -0.000000   -0.939585
  H      1.227659   -0.000000    3.073518
  H      3.351527    0.000000    1.734093
  H      3.329381    0.000000   -0.724805
  H      1.181204   -0.000000   -2.025642

 Multiplicity           Mult            ....    1
 Number of Electrons    NEL             ....   40
 Basis Dimension        Dim             ....   92

ORBITAL ENERGIES
----------------

  NO   OCC          E(Eh)            E(eV)
   0   2.0000     -11.271782      -306.7208
   1   2.0000     -11.271760      -306.7202
   2   2.0000     -11.251348      -306.1647
   3   2.0000     -11.250167      -306.1326
   4   2.0000     -11.249099      -306.1036
   5   2.0000     -11.248782      -306.0949
   6   2.0000      -1.163333       -31.6559
   7   2.0000      -1.023962       -27.8634
   8   2.0000      -1.005402       -27.3584
   9   2.0000      -0.838104       -22.8060
  10   2.0000      -0.788858       -21.4659
  11   2.0000      -0.684093       -18.6151
  12   2.0000      -0.639253       -17.3950
  13   2.0000      -0.624768       -17.0008
  14   2.0000      -0.549665       -14.9572
  15   2.0000      -0.539888       -14.6911
  16   2.0000      -0.517136       -14.0720
  17   2.0000      -0.363468        -9.8905
  18   2.0000      -0.347658        -9.4602
  19   2.0000      -0.344935        -9.3862
  20   0.0000       0.072024         1.9599
  21   0.0000       0.121459         3.3051
  22   0.0000       0.160939         4.3794
  23   0.0000       0.246998         6.7212
  24   0.0000       0.282505         7.6874

MULLIKEN ATOMIC CHARGES
-----------------------
   0 C :   -0.007891
   1 C :   -0.008004
   2 C :   -0.188457
   3 C :   -0.176025
   4 C :   -0.176003
   5 C :   -0.188483
   6 H :    0.189603
   7 H :    0.182810
   8 H :    0.182820
   9 H :    0.189629
Sum of atomic charges:   -0.0000000

LOEWDIN ATOMIC CHARGES
----------------------
   0 C :   -0.031830
   1 C :   -0.031935
   2 C :   -0.126671
   3 C :   -0.138828
   4 C :   -0.138700
   5 C :   -0.126777
   6 H :    0.148939
   7 H :    0.148420
   8 H :    0.148421
   9 H :    0.148961

  Mayer bond orders larger than 0.100000
B(  0-C ,  1-C ) :   2.0979 B(  0-C ,  5-C ) :   1.2883 B(  1-C ,  2-C ) :   1.2881
B(  2-C ,  3-C ) :   1.3780 B(  2-C ,  5-C ) :   0.1048 B(  2-C ,  6-H ) :   0.8908
B(  3-C ,  4-C ) :   1.3262 B(  3-C ,  7-H ) :   0.8909 B(  4-C ,  5-C ) :   1.3779
B(  4-C ,  8-H ) :   0.8909 B(  5-C ,  9-H ) :   0.8908

MP2 TOTAL ENERGY:     -230.168612181 Eh
FINAL SINGLE POINT ENERGY      -230.168612181488

DIPOLE MOMENT
-------------
                                X             Y             Z
Electronic contribution:     -3.13051       0.00000       0.02816
Nuclear contribution   :      3.72505      -0.00000      -0.03381
                        -----------------------------------------
Total Dipole Moment    :      0.59453      -0.00000      -0.00565
                        -----------------------------------------
Magnitude (a.u.)       :      0.59456
Magnitude (Debye)      :      1.51125

VIBRATIONAL FREQUENCIES
-----------------------

Scaling factor for frequencies =  1.000000000  (already applied!)

   0:         0.00 cm**-1
   1:         0.00 cm**-1
   2:         0.00 cm**-1
   3:         0.00 cm**-1
   4:         0.00 cm**-1
   5:         0.00 cm**-1
   6:       387.17 cm**-1
   7:       471.28 cm**-1
   8:       558.23 cm**-1
   9:       592.67 cm**-1
  10:       615.23 cm**-1
  11:       745.85 cm**-1
  12:       853.11 cm**-1
  13:       877.62 cm**-1
  14:       882.12 cm**-1
  15:       891.84 cm**-1
  16:      1023.15 cm**-1
  17:      1085.13 cm**-1
  18:      1142.67 cm**-1
  19:      1202.32 cm**-1
  20:      1293.91 cm**-1
  21:      1406.26 cm**-1
  22:      1446.62 cm**-1
  23:      1525.64 cm**-1
  24:      1526.24 cm**-1
  25:      1959.50 cm**-1
  26:      3219.86 cm**-1
  27:      3233.86 cm**-1
  28:      3254.00 cm**-1
  29:      3256.71 cm**-1

IR SPECTRUM
-----------

 Mode   freq       eps      Int      T**2         TX        TY        TZ
       cm**-1   L/(mol*cm) km/mol    a.u.
----------------------------------------------------------------------------
  6:    387.17   0.000899    4.54  0.000725  (-0.000000  0.026922  0.000000)
  7:    471.28   0.000000    0.00  0.000000  ( 0.000000  0.000012  0.000000)
  8:    558.23   0.000000    0.00  0.000000  ( 0.000000  0.000048  0.000000)
  9:    592.67   0.001977    9.99  0.001041  ( 0.000276 -0.000000  0.032263)
 10:    615.23   0.000017    0.09  0.000009  (-0.002933 -0.000000  0.000021)
 11:    745.85   0.014583   73.70  0.006102  (-0.000000 -0.078113  0.000000)
 12:    853.11   0.000000    0.00  0.000000  ( 0.000000 -0.000036  0.000000)
 13:    877.62   0.000151    0.76  0.000054  (-0.000000 -0.007329  0.000000)
 14:    882.12   0.001962    9.92  0.000694  (-0.000236 -0.000000 -0.026345)
 15:    891.84   0.000000    0.00  0.000000  (-0.000000 -0.000011 -0.000000)
 16:   1023.15   0.000485    2.45  0.000148  (-0.012161 -0.000000  0.000121)
 17:   1085.13   0.003981   20.12  0.001145  (-0.033834  0.000000  0.000270)
 18:   1142.67   0.000131    0.66  0.000036  (-0.000070  0.000000 -0.005983)
 19:   1202.32   0.000151    0.76  0.000039  ( 0.006257 -0.000000 -0.000064)
 20:   1293.91   0.000017    0.08  0.000004  (-0.000025 -0.000000 -0.002006)
 21:   1406.26   0.000254    1.29  0.000056  (-0.007514 -0.000000  0.000134)
 22:   1446.62   0.002677   13.53  0.000578  (-0.000254 -0.000000 -0.024031)
 23:   1525.64   0.000037    0.19  0.000008  ( 0.002597 -0.000000 -0.000917)
 24:   1526.24   0.000187    0.95  0.000038  (-0.000388  0.000000 -0.006177)
 25:   1959.50   0.000639    3.23  0.000102  (-0.010088  0.000000  0.000205)
 26:   3219.86   0.000075    0.38  0.000007  (-0.000032  0.000000 -0.002691)
 27:   3233.86   0.000610    3.08  0.000059  (-0.007674 -0.000000  0.000083)
 28:   3254.00   0.003797   19.19  0.000364  (-0.000217  0.000000 -0.019081)
 29:   3256.71   0.000950    4.80  0.000091  ( 0.009538 -0.000000 -0.000172)

--------------------------
THERMOCHEMISTRY AT 298.15K
--------------------------

Temperature         ... 298.15 K
Pressure            ... 1.00 atm
Total Mass          ... 76.10 AMU

Throughout the following assumptions are being made:
  (1) The electronic state is orbitally nondegenerate
  (2) There are no thermally accessible electronically excited states
  (3) Hindered rotations indicated by low frequency modes are not
      treated as such but are treated as vibrations and this may
      cause some error
  (4) All equations used are the standard statistical mechanics
      equations for an ideal gas
  (5) All vibrations are strictly harmonic

freq.     387.17  E(vib)   ...       0.20
freq.     471.28  E(vib)   ...       0.15
freq.     558.23  E(vib)   ...       0.12
freq.     592.67  E(vib)   ...       0.10
freq.     615.23  E(vib)   ...       0.10
freq.     745.85  E(vib)   ...       0.06
freq.     853.11  E(vib)   ...       0.04
freq.     877.62  E(vib)   ...       0.04
freq.     882.12  E(vib)   ...       0.04
freq.     891.84  E(vib)   ...       0.03
freq.    1023.15  E(vib)   ...       0.02
freq.    1085.13  E(vib)   ...       0.02
freq.    1142.67  E(vib)   ...       0.01
freq.    1202.32  E(vib)   ...       0.01
freq.    1293.91  E(vib)   ...       0.01
freq.    1406.26  E(vib)   ...       0.00
freq.    1446.62  E(vib)   ...       0.00
freq.    1525.64  E(vib)   ...       0.00
freq.    1526.24  E(vib)   ...       0.00
freq.    1959.50  E(vib)   ...       0.00
freq.    3219.86  E(vib)   ...       0.00
freq.    3233.86  E(vib)   ...       0.00
freq.    3254.00  E(vib)   ...       0.00
freq.    3256.71  E(vib)   ...       0.00

------------
INNER ENERGY
------------

The inner energy is: U= E(el) + E(ZPE) + E(vib) + E(rot) + E(trans)
    E(el)   - is the total energy from the electronic structure calculation
              = E(kin-el) + E(nuc-el) + E(el-el) + E(nuc-nuc)
    E(ZPE)  - the the zero temperature vibrational energy from the frequency calculation
    E(vib)  - the the finite temperature correction to E(ZPE) due to population
              of excited vibrational states
    E(rot)  - is the rotational thermal energy
    E(trans)- is the translational thermal energy

Summary of contributions to the inner energy U:
Electronic energy                ...   -230.16861218 Eh
Zero point energy                ...      0.07620704 Eh      47.82 kcal/mol
Thermal vibrational correction   ...      0.00153295 Eh       0.96 kcal/mol
Thermal rotational correction    ...      0.00141627 Eh       0.89 kcal/mol
Thermal translational correction ...      0.00141627 Eh       0.89 kcal/mol
-----------------------------------------------------------------------
Total thermal energy                   -230.08803965 Eh

Summary of corrections to the electronic energy:
(perhaps to be used in another calculation)
Total thermal correction                  0.00436549 Eh       2.74 kcal/mol
Non-thermal (ZPE) correction              0.07620704 Eh      47.82 kcal/mol
-----------------------------------------------------------------------
Total correction                          0.08057253 Eh      50.56 kcal/mol

--------
ENTHALPY
--------

The enthalpy is H = U + kB*T
                kB is Boltzmann's constant
Total free energy                 ...   -230.08803965 Eh
Thermal Enthalpy correction       ...      0.00094421 Eh       0.59 kcal/mol
-----------------------------------------------------------------------
Total Enthalpy                    ...   -230.08709545 Eh

Note: Rotational entropy computed according to Herzberg
Infrared and Raman Spectra, Chapter V,1, Van Nostrand Reinhold, 1945
Point Group:  Cs, Symmetry Number:   1
Rotational constants in cm-1:     0.232689     0.188881     0.104254

Vibrational entropy computed according to the QRRHO of S. Grimme
Chem.Eur.J. 2012 18 9955

-------
ENTROPY
-------

The entropy contributions are T*S = T*(S(el)+S(vib)+S(rot)+S(trans))
     S(el)   - electronic entropy
     S(vib)  - vibrational entropy
     S(rot)  - rotational entropy
     S(trans)- translational entropy
The entropies will be listed as multiplied by the temperature to get
units of energy

Electronic entropy                ...      0.00000000 Eh      0.00 kcal/mol
Vibrational entropy               ...      0.00207335 Eh      1.30 kcal/mol
Rotational entropy                ...      0.01205331 Eh      7.56 kcal/mol
Translational entropy             ...      0.01848439 Eh     11.60 kcal/mol
-----------------------------------------------------------------------
Final entropy term                ...      0.03261105 Eh     20.46 kcal/mol

In case the symmetry of your molecule has not been determined correctly
or in case you have a reason to use a different symmetry number we print
out the resulting rotational entropy values for sn=1,12 :
 --------------------------------------------------------
|  sn= 1 | S(rot)=       0.01205331 Eh      7.56 kcal/mol|
|  sn= 2 | S(rot)=       0.01139885 Eh      7.15 kcal/mol|
|  sn= 3 | S(rot)=       0.01101602 Eh      6.91 kcal/mol|
|  sn= 4 | S(rot)=       0.01074439 Eh      6.74 kcal/mol|
|  sn= 5 | S(rot)=       0.01053371 Eh      6.61 kcal/mol|
|  sn= 6 | S(rot)=       0.01036156 Eh      6.50 kcal/mol|
|  sn= 7 | S(rot)=       0.01021602 Eh      6.41 kcal/mol|
|  sn= 8 | S(rot)=       0.01008994 Eh      6.33 kcal/mol|
|  sn= 9 | S(rot)=       0.00997873 Eh      6.26 kcal/mol|
|  sn=10 | S(rot)=       0.00987925 Eh      6.20 kcal/mol|
|  sn=11 | S(rot)=       0.00978926 Eh      6.14 kcal/mol|
|  sn=12 | S(rot)=       0.00970711 Eh      6.09 kcal/mol|
 --------------------------------------------------------

-------------------
GIBBS FREE ENERGY
-------------------

The Gibbs free energy is G = H - T*S

Total enthalpy                    ...   -230.08709545 Eh
Total entropy correction          ...     -0.03261105 Eh    -20.46 kcal/mol
-----------------------------------------------------------------------
Final Gibbs free energy         ...   -230.11970650 Eh

For completeness - the Gibbs free energy minus the electronic energy
G-E(el)                           ...      0.04890568 Eh     30.69 kcal/mol

                             ****ORCA TERMINATED NORMALLY****
TOTAL RUN TIME: 0 days 0 hours 19 minutes 55 seconds 178 msec
