                         Program Version 5.0.3 -  RELEASE  -
|  1> ! HF 6-31g* OPT ANFREQ NoFrozenCore
|  2>
|  3> *xyz 0 1
|  4>
|  5>  C     0.000000     0.000000     0.000000
|  6>  C     0.000000     0.000000     1.200000
|  7>  C     1.212436     0.000000     1.900000
|  8>  C     2.424871     0.000000     1.200000
|  9>  C     2.424871     0.000000    -0.200000
| 10>  C     1.212436     0.000000    -0.900000
| 11>  H     1.212436     0.000000     2.989000
| 12>  H     3.367973     0.000000     1.744500
| 13>  H     3.367973     0.000000    -0.744500
| 14>  H     1.212436     0.000000    -1.989000
| 15> *
| 16>
| 17>                          ****END OF INPUT****
 Total Charge           Charge          ....    0
 Multiplicity           Mult            ....    1
 Number of Electrons    NEL             ....   40
FINAL SINGLE POINT ENERGY      -229.363575171028
FINAL SINGLE POINT ENERGY      -229.384038203229
FINAL SINGLE POINT ENERGY      -229.385799663711
FINAL SINGLE POINT ENERGY      -229.386157840793
FINAL SINGLE POINT ENERGY      -229.386232124945
FINAL SINGLE POINT ENERGY      -229.386250971214
FINAL SINGLE POINT ENERGY      -229.386275882616
FINAL SINGLE POINT ENERGY      -229.386293741791
FINAL SINGLE POINT ENERGY      -229.386309471213
FINAL SINGLE POINT ENERGY      -229.386315073811
FINAL SINGLE POINT ENERGY      -229.386316239106
                    ***********************HURRAY********************

CARTESIAN COORDINATES (ANGSTROEM)
---------------------------------
  C      0.102296   -0.000000   -0.077734
  C      0.113244   -0.000000    1.145479
  C      1.218840    0.000000    1.977040
  C      2.386018   -0.000000    1.218433
  C      2.373325   -0.000000   -0.191740
  C      1.192634    0.000000   -0.929127
  H      1.221595    0.000000    3.049849
  H      3.336747   -0.000000    1.722920
  H      3.314775   -0.000000   -0.713317
  H      1.175958    0.000000   -2.001803

 Multiplicity           Mult            ....    1
 Number of Electrons    NEL             ....   40
 Basis Dimension        Dim             ....   92

ORBITAL ENERGIES
----------------

  NO   OCC          E(Eh)            E(eV)
   0   2.0000     -11.265903      -306.5608
   1   2.0000     -11.265885      -306.5603
   2   2.0000     -11.245080      -305.9942
   3   2.0000     -11.244010      -305.9651
   4   2.0000     -11.238309      -305.8099
   5   2.0000     -11.234965      -305.7189
   6   2.0000      -1.172721       -31.9114
   7   2.0000      -1.027748       -27.9664
   8   2.0000      -1.011831       -27.5333
   9   2.0000      -0.844397       -22.9772
  10   2.0000      -0.789262       -21.4769
  11   2.0000      -0.691079       -18.8052
  12   2.0000      -0.642560       -17.4850
  13   2.0000      -0.628045       -17.0900
  14   2.0000      -0.551876       -15.0173
  15   2.0000      -0.540945       -14.7199
  16   2.0000      -0.523533       -14.2461
  17   2.0000      -0.370015       -10.0686
  18   2.0000      -0.349054        -9.4982
  19   2.0000      -0.348043        -9.4707
  20   0.0000       0.088530         2.4090
  21   0.0000       0.123925         3.3722
  22   0.0000       0.169012         4.5990
  23   0.0000       0.250922         6.8279
  24   0.0000       0.285864         7.7788

MULLIKEN ATOMIC CHARGES
-----------------------
   0 C :   -0.025090
   1 C :   -0.025161
   2 C :   -0.202580
   3 C :   -0.199847
   4 C :   -0.199846
   5 C :   -0.202600
   6 H :    0.219940
   7 H :    0.207612
   8 H :    0.207628
   9 H :    0.219944
Sum of atomic charges:    0.0000000

LOEWDIN ATOMIC CHARGES
----------------------
   0 C :   -0.039003
   1 C :   -0.039091
   2 C :   -0.117638
   3 C :   -0.133099
   4 C :   -0.133086
   5 C :   -0.117667
   6 H :    0.147051
   7 H :    0.142736
   8 H :    0.142743
   9 H :    0.147054

  Mayer bond orders larger than 0.100000
B(  0-C ,  1-C ) :   2.4279 B(  0-C ,  5-C ) :   1.3726 B(  1-C ,  2-C ) :   1.3726
B(  2-C ,  3-C ) :   1.5104 B(  2-C ,  5-C ) :   0.1147 B(  2-C ,  6-H ) :   0.9263
B(  3-C ,  4-C ) :   1.3905 B(  3-C ,  7-H ) :   0.9334 B(  4-C ,  5-C ) :   1.5104
B(  4-C ,  8-H ) :   0.9334 B(  5-C ,  9-H ) :   0.9263

FINAL SINGLE POINT ENERGY      -229.386316393803

DIPOLE MOMENT
-------------
                                X             Y             Z
Electronic contribution:     -3.02811      -0.00000       0.02719
Nuclear contribution   :      3.66478       0.00000      -0.03310
                        -----------------------------------------
Total Dipole Moment    :      0.63668       0.00000      -0.00591
                        -----------------------------------------
Magnitude (a.u.)       :      0.63670
Magnitude (Debye)      :      1.61837

VIBRATIONAL FREQUENCIES
-----------------------

Scaling factor for frequencies =  1.000000000  (already applied!)

   0:         0.00 cm**-1
   1:         0.00 cm**-1
   2:         0.00 cm**-1
   3:         0.00 cm**-1
   4:         0.00 cm**-1
   5:         0.00 cm**-1
   6:       316.94 cm**-1
   7:       431.04 cm**-1
   8:       444.31 cm**-1
   9:       632.48 cm**-1
  10:       670.39 cm**-1
  11:       838.61 cm**-1
  12:       901.54 cm**-1
  13:       970.11 cm**-1
  14:      1049.33 cm**-1
  15:      1076.73 cm**-1
  16:      1089.82 cm**-1
  17:      1099.11 cm**-1
  18:      1211.09 cm**-1
  19:      1244.48 cm**-1
  20:      1372.66 cm**-1
  21:      1404.32 cm**-1
  22:      1545.99 cm**-1
  23:      1611.82 cm**-1
  24:      1650.06 cm**-1
  25:      2210.97 cm**-1
  26:      3351.57 cm**-1
  27:      3369.87 cm**-1
  28:      3405.16 cm**-1
  29:      3408.69 cm**-1

IR SPECTRUM
-----------

 Mode   freq       eps      Int      T**2         TX        TY        TZ
       cm**-1   L/(mol*cm) km/mol    a.u.
----------------------------------------------------------------------------
  6:    316.94   0.037495  189.48  0.036918  ( 0.001710 -0.000000  0.192132)
  7:    431.04   0.001191    6.02  0.000863  (-0.000000 -0.029369  0.000000)
  8:    444.31   0.000000    0.00  0.000000  (-0.000000 -0.000038 -0.000000)
  9:    632.48   0.000000    0.00  0.000000  ( 0.000000 -0.000010 -0.000000)
 10:    670.39   0.000154    0.78  0.000071  (-0.008455  0.000000  0.000068)
 11:    838.61   0.014985   75.73  0.005576  (-0.000000  0.074673  0.000000)
 12:    901.54   0.006620   33.46  0.002292  ( 0.000423 -0.000000  0.047868)
 13:    970.11   0.000000    0.00  0.000000  ( 0.000000  0.000015 -0.000000)
 14:   1049.33   0.000009    0.05  0.000003  ( 0.000000  0.001634 -0.000000)
 15:   1076.73   0.000918    4.64  0.000266  ( 0.016314  0.000000 -0.000151)
 16:   1089.82   0.005982   30.23  0.001713  ( 0.041387  0.000000 -0.000373)
 17:   1099.11   0.000000    0.00  0.000000  (-0.000000 -0.000004 -0.000000)
 18:   1211.09   0.000164    0.83  0.000042  (-0.000065 -0.000000 -0.006493)
 19:   1244.48   0.000121    0.61  0.000030  (-0.005497 -0.000000  0.000048)
 20:   1372.66   0.000016    0.08  0.000004  (-0.000012  0.000000 -0.001906)
 21:   1404.32   0.000076    0.39  0.000017  (-0.004114 -0.000000  0.000039)
 22:   1545.99   0.000652    3.29  0.000132  (-0.000109  0.000000 -0.011469)
 23:   1611.82   0.000031    0.16  0.000006  ( 0.002445 -0.000000 -0.000010)
 24:   1650.06   0.004903   24.78  0.000927  (-0.000268  0.000000 -0.030450)
 25:   2210.97   0.000011    0.05  0.000002  (-0.001237 -0.000000 -0.000005)
 26:   3351.57   0.000997    5.04  0.000093  (-0.000139 -0.000000 -0.009633)
 27:   3369.87   0.003139   15.86  0.000291  (-0.017049  0.000000  0.000179)
 28:   3405.16   0.008533   43.12  0.000782  (-0.000345 -0.000000 -0.027962)
 29:   3408.69   0.001145    5.79  0.000105  ( 0.010233  0.000000 -0.000338)

--------------------------
THERMOCHEMISTRY AT 298.15K
--------------------------

Temperature         ... 298.15 K
Pressure            ... 1.00 atm
Total Mass          ... 76.10 AMU

Throughout the following assumptions are being made:
  (1) The electronic state is orbitally nondegenerate
  (2) There are no thermally accessible electronically excited states
  (3) Hindered rotations indicated by low frequency modes are not
      treated as such but are treated as vibrations and this may
      cause some error
  (4) All equations used are the standard statistical mechanics
      equations for an ideal gas
  (5) All vibrations are strictly harmonic

freq.     316.94  E(vib)   ...       0.25
freq.     431.04  E(vib)   ...       0.18
freq.     444.31  E(vib)   ...       0.17
freq.     632.48  E(vib)   ...       0.09
freq.     670.39  E(vib)   ...       0.08
freq.     838.61  E(vib)   ...       0.04
freq.     901.54  E(vib)   ...       0.03
freq.     970.11  E(vib)   ...       0.03
freq.    1049.33  E(vib)   ...       0.02
freq.    1076.73  E(vib)   ...       0.02
freq.    1089.82  E(vib)   ...       0.02
freq.    1099.11  E(vib)   ...       0.02
freq.    1211.09  E(vib)   ...       0.01
freq.    1244.48  E(vib)   ...       0.01
freq.    1372.66  E(vib)   ...       0.01
freq.    1404.32  E(vib)   ...       0.00
freq.    1545.99  E(vib)   ...       0.00
freq.    1611.82  E(vib)   ...       0.00
freq.    1650.06  E(vib)   ...       0.00
freq.    2210.97  E(vib)   ...       0.00
freq.    3351.57  E(vib)   ...       0.00
freq.    3369.87  E(vib)   ...       0.00
freq.    3405.16  E(vib)   ...       0.00
freq.    3408.69  E(vib)   ...       0.00

------------
INNER ENERGY
------------

The inner energy is: U= E(el) + E(ZPE) + E(vib) + E(rot) + E(trans)
    E(el)   - is the total energy from the electronic structure calculation
              = E(kin-el) + E(nuc-el) + E(el-el) + E(nuc-nuc)
    E(ZPE)  - the the zero temperature vibrational energy from the frequency calculation
    E(vib)  - the the finite temperature correction to E(ZPE) due to population
              of excited vibrational states
    E(rot)  - is the rotational thermal energy
    E(trans)- is the translational thermal energy

Summary of contributions to the inner energy U:
Electronic energy                ...   -229.38631639 Eh
Zero point energy                ...      0.08043546 Eh      50.47 kcal/mol
Thermal vibrational correction   ...      0.00154401 Eh       0.97 kcal/mol
Thermal rotational correction    ...      0.00141627 Eh       0.89 kcal/mol
Thermal translational correction ...      0.00141627 Eh       0.89 kcal/mol
-----------------------------------------------------------------------
Total thermal energy                   -229.30150438 Eh

Summary of corrections to the electronic energy:
(perhaps to be used in another calculation)
Total thermal correction                  0.00437656 Eh       2.75 kcal/mol
Non-thermal (ZPE) correction              0.08043546 Eh      50.47 kcal/mol
-----------------------------------------------------------------------
Total correction                          0.08481202 Eh      53.22 kcal/mol

--------
ENTHALPY
--------

The enthalpy is H = U + kB*T
                kB is Boltzmann's constant
Total free energy                 ...   -229.30150438 Eh
Thermal Enthalpy correction       ...      0.00094421 Eh       0.59 kcal/mol
-----------------------------------------------------------------------
Total Enthalpy                    ...   -229.30056017 Eh

Note: Rotational entropy computed according to Herzberg
Infrared and Raman Spectra, Chapter V,1, Van Nostrand Reinhold, 1945
Point Group:  C2v, Symmetry Number:   2
Rotational constants in cm-1:     0.238626     0.192638     0.106590

Vibrational entropy computed according to the QRRHO of S. Grimme
Chem.Eur.J. 2012 18 9955

-------
ENTROPY
-------

The entropy contributions are T*S = T*(S(el)+S(vib)+S(rot)+S(trans))
     S(el)   - electronic entropy
     S(vib)  - vibrational entropy
     S(rot)  - rotational entropy
     S(trans)- translational entropy
The entropies will be listed as multiplied by the temperature to get
units of energy

Electronic entropy                ...      0.00000000 Eh      0.00 kcal/mol
Vibrational entropy               ...      0.00217284 Eh      1.36 kcal/mol
Rotational entropy                ...      0.01136720 Eh      7.13 kcal/mol
Translational entropy             ...      0.01848439 Eh     11.60 kcal/mol
-----------------------------------------------------------------------
Final entropy term                ...      0.03202443 Eh     20.10 kcal/mol

In case the symmetry of your molecule has not been determined correctly
or in case you have a reason to use a different symmetry number we print
out the resulting rotational entropy values for sn=1,12 :
 --------------------------------------------------------
|  sn= 1 | S(rot)=       0.01202166 Eh      7.54 kcal/mol|
|  sn= 2 | S(rot)=       0.01136720 Eh      7.13 kcal/mol|
|  sn= 3 | S(rot)=       0.01098437 Eh      6.89 kcal/mol|
|  sn= 4 | S(rot)=       0.01071274 Eh      6.72 kcal/mol|
|  sn= 5 | S(rot)=       0.01050206 Eh      6.59 kcal/mol|
|  sn= 6 | S(rot)=       0.01032991 Eh      6.48 kcal/mol|
|  sn= 7 | S(rot)=       0.01018437 Eh      6.39 kcal/mol|
|  sn= 8 | S(rot)=       0.01005829 Eh      6.31 kcal/mol|
|  sn= 9 | S(rot)=       0.00994708 Eh      6.24 kcal/mol|
|  sn=10 | S(rot)=       0.00984760 Eh      6.18 kcal/mol|
|  sn=11 | S(rot)=       0.00975761 Eh      6.12 kcal/mol|
|  sn=12 | S(rot)=       0.00967546 Eh      6.07 kcal/mol|
 --------------------------------------------------------

-------------------
GIBBS FREE ENERGY
-------------------

The Gibbs free energy is G = H - T*S

Total enthalpy                    ...   -229.30056017 Eh
Total entropy correction          ...     -0.03202443 Eh    -20.10 kcal/mol
-----------------------------------------------------------------------
Final Gibbs free energy         ...   -229.33258459 Eh

For completeness - the Gibbs free energy minus the electronic energy
G-E(el)                           ...      0.05373180 Eh     33.72 kcal/mol

                             ****ORCA TERMINATED NORMALLY****
TOTAL RUN TIME: 0 days 0 hours 4 minutes 4 seconds 587 msec
