                         Program Version 5.0.3 -  RELEASE  -
|  1> ! MP2 6-31g* OPT ANFREQ NoFrozenCore
|  2>
|  3> *xyz 0 1
|  4>
|  5>  C     0.000000     0.000000     0.000000
|  6>  C     0.000000     0.000000     1.400000
|  7>  C     1.212436     0.000000     2.100000
|  8>  C     2.424871     0.000000     1.400000
|  9>  C     2.424871     0.000000     0.000000
| 10>  C     1.212436     0.000000    -0.700000
| 11>  H    -0.943102     0.000000     1.944500
| 12>  H     1.212436     0.000000     3.189000
| 13>  H     3.367973     0.000000     1.944500
| 14>  H     3.367973     0.000000    -0.544500
| 15>  H     1.212436     0.000000    -1.789000
| 16>  H    -1.026719     0.000000    -0.363000
| 17> *
| 18>
| 19>                          ****END OF INPUT****
 Total Charge           Charge          ....    0
 Multiplicity           Mult            ....    1
 Number of Electrons    NEL             ....   42
MP2 TOTAL ENERGY:     -231.460157902 Eh
FINAL SINGLE POINT ENERGY      -231.460157901912
MP2 TOTAL ENERGY:     -231.462831753 Eh
FINAL SINGLE POINT ENERGY      -231.462831752618
MP2 TOTAL ENERGY:     -231.464483817 Eh
FINAL SINGLE POINT ENERGY      -231.464483816588
MP2 TOTAL ENERGY:     -231.464542187 Eh
FINAL SINGLE POINT ENERGY      -231.464542186727
MP2 TOTAL ENERGY:     -231.464551846 Eh
FINAL SINGLE POINT ENERGY      -231.464551845806
                    ***********************HURRAY********************

CARTESIAN COORDINATES (ANGSTROEM)
---------------------------------
  C     -0.011277    0.000000    0.029355
  C      0.003242    0.000000    1.425768
  C      1.219586    0.000000    2.111813
  C      2.422037    0.000000    1.401200
  C      2.407725    0.000000    0.004743
  C      1.191094    0.000000   -0.681397
  H     -0.933254   -0.000000    1.978391
  H      1.230803   -0.000000    3.199113
  H      3.369426    0.000000    1.934876
  H      3.343598   -0.000000   -0.548900
  H      1.181055   -0.000000   -1.768701
  H     -0.958423    0.000000   -0.504760

 Multiplicity           Mult            ....    1
 Number of Electrons    NEL             ....   42
 Basis Dimension        Dim             ....   96

ORBITAL ENERGIES
----------------

  NO   OCC          E(Eh)            E(eV)
   0   2.0000     -11.232398      -305.6491
   1   2.0000     -11.231869      -305.6347
   2   2.0000     -11.231847      -305.6341
   3   2.0000     -11.230702      -305.6029
   4   2.0000     -11.230678      -305.6023
   5   2.0000     -11.230125      -305.5872
   6   2.0000      -1.141786       -31.0696
   7   2.0000      -1.007327       -27.4108
   8   2.0000      -1.007272       -27.4093
   9   2.0000      -0.816745       -22.2248
  10   2.0000      -0.816641       -22.2219
  11   2.0000      -0.701213       -19.0810
  12   2.0000      -0.638210       -17.3666
  13   2.0000      -0.610381       -16.6093
  14   2.0000      -0.581047       -15.8111
  15   2.0000      -0.581016       -15.8103
  16   2.0000      -0.494137       -13.4461
  17   2.0000      -0.488367       -13.2892
  18   2.0000      -0.488302       -13.2874
  19   2.0000      -0.329245        -8.9592
  20   2.0000      -0.329195        -8.9578
  21   0.0000       0.146707         3.9921
  22   0.0000       0.146787         3.9943
  23   0.0000       0.232791         6.3346
  24   0.0000       0.292134         7.9494
  25   0.0000       0.292165         7.9502

MULLIKEN ATOMIC CHARGES
-----------------------
   0 C :   -0.172510
   1 C :   -0.172539
   2 C :   -0.172521
   3 C :   -0.172530
   4 C :   -0.172537
   5 C :   -0.172557
   6 H :    0.172519
   7 H :    0.172561
   8 H :    0.172541
   9 H :    0.172500
  10 H :    0.172526
  11 H :    0.172548
Sum of atomic charges:    0.0000000

LOEWDIN ATOMIC CHARGES
----------------------
   0 C :   -0.140282
   1 C :   -0.140281
   2 C :   -0.140262
   3 C :   -0.140274
   4 C :   -0.140297
   5 C :   -0.140272
   6 H :    0.140274
   7 H :    0.140296
   8 H :    0.140282
   9 H :    0.140258
  10 H :    0.140272
  11 H :    0.140286

  Mayer bond orders larger than 0.100000
B(  0-C ,  1-C ) :   1.3605 B(  0-C ,  5-C ) :   1.3606 B(  0-C , 11-H ) :   0.9014
B(  1-C ,  2-C ) :   1.3606 B(  1-C ,  6-H ) :   0.9014 B(  2-C ,  3-C ) :   1.3604
B(  2-C ,  7-H ) :   0.9014 B(  3-C ,  4-C ) :   1.3607 B(  3-C ,  8-H ) :   0.9014
B(  4-C ,  5-C ) :   1.3604 B(  4-C ,  9-H ) :   0.9014 B(  5-C , 10-H ) :   0.9014

MP2 TOTAL ENERGY:     -231.464552998 Eh
FINAL SINGLE POINT ENERGY      -231.464552997756

DIPOLE MOMENT
-------------
                                X             Y             Z
Electronic contribution:     -0.00056       0.00000       0.00105
Nuclear contribution   :      0.00069      -0.00000      -0.00127
                        -----------------------------------------
Total Dipole Moment    :      0.00013      -0.00000      -0.00022
                        -----------------------------------------
Magnitude (a.u.)       :      0.00025
Magnitude (Debye)      :      0.00065

VIBRATIONAL FREQUENCIES
-----------------------

Scaling factor for frequencies =  1.000000000  (already applied!)

   0:         0.00 cm**-1
   1:         0.00 cm**-1
   2:         0.00 cm**-1
   3:         0.00 cm**-1
   4:         0.00 cm**-1
   5:         0.00 cm**-1
   6:       398.25 cm**-1
   7:       398.49 cm**-1
   8:       512.51 cm**-1
   9:       620.39 cm**-1
  10:       620.47 cm**-1
  11:       686.88 cm**-1
  12:       846.44 cm**-1
  13:       846.48 cm**-1
  14:       898.88 cm**-1
  15:       899.07 cm**-1
  16:       902.19 cm**-1
  17:      1023.00 cm**-1
  18:      1029.31 cm**-1
  19:      1084.57 cm**-1
  20:      1084.79 cm**-1
  21:      1210.50 cm**-1
  22:      1230.49 cm**-1
  23:      1230.86 cm**-1
  24:      1392.93 cm**-1
  25:      1467.64 cm**-1
  26:      1541.60 cm**-1
  27:      1541.68 cm**-1
  28:      1674.26 cm**-1
  29:      1674.79 cm**-1
  30:      3216.80 cm**-1
  31:      3226.43 cm**-1
  32:      3226.62 cm**-1
  33:      3241.11 cm**-1
  34:      3241.27 cm**-1
  35:      3250.28 cm**-1

IR SPECTRUM
-----------

 Mode   freq       eps      Int      T**2         TX        TY        TZ
       cm**-1   L/(mol*cm) km/mol    a.u.
----------------------------------------------------------------------------
  6:    398.25   0.000000    0.00  0.000000  (-0.000000 -0.000023 -0.000000)
  7:    398.49   0.000000    0.00  0.000000  (-0.000000  0.000006  0.000000)
  8:    512.51   0.000000    0.00  0.000000  (-0.000000  0.000011 -0.000000)
  9:    620.39   0.000000    0.00  0.000000  (-0.000005 -0.000000 -0.000014)
 10:    620.47   0.000000    0.00  0.000000  ( 0.000015  0.000000 -0.000000)
 11:    686.88   0.019545   98.77  0.008880  ( 0.000000 -0.094232 -0.000000)
 12:    846.44   0.000000    0.00  0.000000  ( 0.000000 -0.000031 -0.000000)
 13:    846.48   0.000000    0.00  0.000000  (-0.000000 -0.000028  0.000000)
 14:    898.88   0.000000    0.00  0.000000  ( 0.000000  0.000015 -0.000000)
 15:    899.07   0.000000    0.00  0.000000  ( 0.000000  0.000031 -0.000000)
 16:    902.19   0.000000    0.00  0.000000  ( 0.000000  0.000003 -0.000000)
 17:   1023.00   0.000000    0.00  0.000000  ( 0.000025  0.000000 -0.000019)
 18:   1029.31   0.000000    0.00  0.000000  (-0.000017 -0.000000  0.000024)
 19:   1084.57   0.000772    3.90  0.000222  (-0.002514 -0.000000 -0.014692)
 20:   1084.79   0.000768    3.88  0.000221  ( 0.014653  0.000000 -0.002510)
 21:   1210.50   0.000000    0.00  0.000000  (-0.000016 -0.000000  0.000011)
 22:   1230.49   0.000000    0.00  0.000000  ( 0.000013 -0.000000 -0.000027)
 23:   1230.86   0.000000    0.00  0.000000  (-0.000017 -0.000000  0.000029)
 24:   1392.93   0.000000    0.00  0.000000  (-0.000006 -0.000000 -0.000003)
 25:   1467.64   0.000000    0.00  0.000000  (-0.000086  0.000000 -0.000045)
 26:   1541.60   0.001966    9.94  0.000398  (-0.005002 -0.000000  0.019312)
 27:   1541.68   0.001961    9.91  0.000397  ( 0.019276 -0.000000  0.005028)
 28:   1674.26   0.000000    0.00  0.000000  ( 0.000003  0.000000 -0.000024)
 29:   1674.79   0.000000    0.00  0.000000  ( 0.000016  0.000000 -0.000016)
 30:   3216.80   0.000000    0.00  0.000000  ( 0.000098 -0.000000 -0.000123)
 31:   3226.43   0.000000    0.00  0.000000  (-0.000080 -0.000000  0.000041)
 32:   3226.62   0.000000    0.00  0.000000  (-0.000027 -0.000000 -0.000036)
 33:   3241.11   0.006607   33.39  0.000636  ( 0.023585 -0.000000 -0.008940)
 34:   3241.27   0.006600   33.35  0.000635  (-0.008927  0.000000 -0.023573)
 35:   3250.28   0.000000    0.00  0.000000  (-0.000116 -0.000000  0.000104)

--------------------------
THERMOCHEMISTRY AT 298.15K
--------------------------

Temperature         ... 298.15 K
Pressure            ... 1.00 atm
Total Mass          ... 78.11 AMU

Throughout the following assumptions are being made:
  (1) The electronic state is orbitally nondegenerate
  (2) There are no thermally accessible electronically excited states
  (3) Hindered rotations indicated by low frequency modes are not
      treated as such but are treated as vibrations and this may
      cause some error
  (4) All equations used are the standard statistical mechanics
      equations for an ideal gas
  (5) All vibrations are strictly harmonic

freq.     398.25  E(vib)   ...       0.20
freq.     398.49  E(vib)   ...       0.20
freq.     512.51  E(vib)   ...       0.13
freq.     620.39  E(vib)   ...       0.09
freq.     620.47  E(vib)   ...       0.09
freq.     686.88  E(vib)   ...       0.07
freq.     846.44  E(vib)   ...       0.04
freq.     846.48  E(vib)   ...       0.04
freq.     898.88  E(vib)   ...       0.03
freq.     899.07  E(vib)   ...       0.03
freq.     902.19  E(vib)   ...       0.03
freq.    1023.00  E(vib)   ...       0.02
freq.    1029.31  E(vib)   ...       0.02
freq.    1084.57  E(vib)   ...       0.02
freq.    1084.79  E(vib)   ...       0.02
freq.    1210.50  E(vib)   ...       0.01
freq.    1230.49  E(vib)   ...       0.01
freq.    1230.86  E(vib)   ...       0.01
freq.    1392.93  E(vib)   ...       0.00
freq.    1467.64  E(vib)   ...       0.00
freq.    1541.60  E(vib)   ...       0.00
freq.    1541.68  E(vib)   ...       0.00
freq.    1674.26  E(vib)   ...       0.00
freq.    1674.79  E(vib)   ...       0.00
freq.    3216.80  E(vib)   ...       0.00
freq.    3226.43  E(vib)   ...       0.00
freq.    3226.62  E(vib)   ...       0.00
freq.    3241.11  E(vib)   ...       0.00
freq.    3241.27  E(vib)   ...       0.00
freq.    3250.28  E(vib)   ...       0.00

------------
INNER ENERGY
------------

The inner energy is: U= E(el) + E(ZPE) + E(vib) + E(rot) + E(trans)
    E(el)   - is the total energy from the electronic structure calculation
              = E(kin-el) + E(nuc-el) + E(el-el) + E(nuc-nuc)
    E(ZPE)  - the the zero temperature vibrational energy from the frequency calculation
    E(vib)  - the the finite temperature correction to E(ZPE) due to population
              of excited vibrational states
    E(rot)  - is the rotational thermal energy
    E(trans)- is the translational thermal energy

Summary of contributions to the inner energy U:
Electronic energy                ...   -231.46455300 Eh
Zero point energy                ...      0.10073829 Eh      63.21 kcal/mol
Thermal vibrational correction   ...      0.00173870 Eh       1.09 kcal/mol
Thermal rotational correction    ...      0.00141627 Eh       0.89 kcal/mol
Thermal translational correction ...      0.00141627 Eh       0.89 kcal/mol
-----------------------------------------------------------------------
Total thermal energy                   -231.35924347 Eh

Summary of corrections to the electronic energy:
(perhaps to be used in another calculation)
Total thermal correction                  0.00457125 Eh       2.87 kcal/mol
Non-thermal (ZPE) correction              0.10073829 Eh      63.21 kcal/mol
-----------------------------------------------------------------------
Total correction                          0.10530953 Eh      66.08 kcal/mol

--------
ENTHALPY
--------

The enthalpy is H = U + kB*T
                kB is Boltzmann's constant
Total free energy                 ...   -231.35924347 Eh
Thermal Enthalpy correction       ...      0.00094421 Eh       0.59 kcal/mol
-----------------------------------------------------------------------
Total Enthalpy                    ...   -231.35829926 Eh

Note: Rotational entropy computed according to Herzberg
Infrared and Raman Spectra, Chapter V,1, Van Nostrand Reinhold, 1945
Point Group:  Cs, Symmetry Number:   1
Rotational constants in cm-1:     0.189542     0.189525     0.094767

Vibrational entropy computed according to the QRRHO of S. Grimme
Chem.Eur.J. 2012 18 9955

-------
ENTROPY
-------

The entropy contributions are T*S = T*(S(el)+S(vib)+S(rot)+S(trans))
     S(el)   - electronic entropy
     S(vib)  - vibrational entropy
     S(rot)  - rotational entropy
     S(trans)- translational entropy
The entropies will be listed as multiplied by the temperature to get
units of energy

Electronic entropy                ...      0.00000000 Eh      0.00 kcal/mol
Vibrational entropy               ...      0.00235957 Eh      1.48 kcal/mol
Rotational entropy                ...      0.01219357 Eh      7.65 kcal/mol
Translational entropy             ...      0.01852142 Eh     11.62 kcal/mol
-----------------------------------------------------------------------
Final entropy term                ...      0.03307456 Eh     20.75 kcal/mol

In case the symmetry of your molecule has not been determined correctly
or in case you have a reason to use a different symmetry number we print
out the resulting rotational entropy values for sn=1,12 :
 --------------------------------------------------------
|  sn= 1 | S(rot)=       0.01219357 Eh      7.65 kcal/mol|
|  sn= 2 | S(rot)=       0.01153911 Eh      7.24 kcal/mol|
|  sn= 3 | S(rot)=       0.01115628 Eh      7.00 kcal/mol|
|  sn= 4 | S(rot)=       0.01088466 Eh      6.83 kcal/mol|
|  sn= 5 | S(rot)=       0.01067397 Eh      6.70 kcal/mol|
|  sn= 6 | S(rot)=       0.01050182 Eh      6.59 kcal/mol|
|  sn= 7 | S(rot)=       0.01035628 Eh      6.50 kcal/mol|
|  sn= 8 | S(rot)=       0.01023020 Eh      6.42 kcal/mol|
|  sn= 9 | S(rot)=       0.01011899 Eh      6.35 kcal/mol|
|  sn=10 | S(rot)=       0.01001951 Eh      6.29 kcal/mol|
|  sn=11 | S(rot)=       0.00992952 Eh      6.23 kcal/mol|
|  sn=12 | S(rot)=       0.00984737 Eh      6.18 kcal/mol|
 --------------------------------------------------------

-------------------
GIBBS FREE ENERGY
-------------------

The Gibbs free energy is G = H - T*S

Total enthalpy                    ...   -231.35829926 Eh
Total entropy correction          ...     -0.03307456 Eh    -20.75 kcal/mol
-----------------------------------------------------------------------
Final Gibbs free energy         ...   -231.39137382 Eh

For completeness - the Gibbs free energy minus the electronic energy
G-E(el)                           ...      0.07317918 Eh     45.92 kcal/mol

                             ****ORCA TERMINATED NORMALLY****
TOTAL RUN TIME: 0 days 0 hours 24 minutes 27 seconds 663 msec
