                         Program Version 5.0.3 -  RELEASE  -
|  1> ! B3LYP 6-31g* OPT ANFREQ NoFrozenCore
|  2>
|  3> *xyz 0 1
|  4>
|  5>  C     0.000000     0.000000     0.000000
|  6>  C     0.000000     0.000000     1.400000
|  7>  C     1.212436     0.000000     2.100000
|  8>  C     2.424871     0.000000     1.400000
|  9>  C     2.424871     0.000000     0.000000
| 10>  C     1.212436     0.000000    -0.700000
| 11>  H    -0.943102     0.000000     1.944500
| 12>  H     1.212436     0.000000     3.189000
| 13>  H     3.367973     0.000000     1.944500
| 14>  H     3.367973     0.000000    -0.544500
| 15>  H     1.212436     0.000000    -1.789000
| 16>  H    -1.026719     0.000000    -0.363000
| 17> *
| 18>
| 19>                          ****END OF INPUT****
 Total Charge           Charge          ....    0
 Multiplicity           Mult            ....    1
 Number of Electrons    NEL             ....   42
FINAL SINGLE POINT ENERGY      -232.085400692937
FINAL SINGLE POINT ENERGY      -232.087952583388
FINAL SINGLE POINT ENERGY      -232.089610334262
FINAL SINGLE POINT ENERGY      -232.089662342241
FINAL SINGLE POINT ENERGY      -232.089672404409
                    ***********************HURRAY********************

CARTESIAN COORDINATES (ANGSTROEM)
---------------------------------
  C     -0.011949   -0.000000    0.029090
  C      0.002511   -0.000000    1.426222
  C      1.219535   -0.000000    2.112311
  C      2.422759   -0.000000    1.401422
  C      2.408505   -0.000000    0.004383
  C      1.191029    0.000000   -0.681908
  H     -0.933880   -0.000000    1.978815
  H      1.230901    0.000000    3.199505
  H      3.369854   -0.000000    1.935408
  H      3.344148   -0.000000   -0.549432
  H      1.181077    0.000000   -1.769099
  H     -0.958878   -0.000000   -0.505215

 Multiplicity           Mult            ....    1
 Number of Electrons    NEL             ....   42
 Basis Dimension        Dim             ....   96

ORBITAL ENERGIES
----------------

  NO   OCC          E(Eh)            E(eV)
   0   2.0000     -10.178060      -276.9591
   1   2.0000     -10.177866      -276.9538
   2   2.0000     -10.177858      -276.9536
   3   2.0000     -10.177418      -276.9416
   4   2.0000     -10.177409      -276.9414
   5   2.0000     -10.177213      -276.9360
   6   2.0000      -0.842317       -22.9206
   7   2.0000      -0.736050       -20.0289
   8   2.0000      -0.735961       -20.0265
   9   2.0000      -0.593804       -16.1582
  10   2.0000      -0.593743       -16.1566
  11   2.0000      -0.514780       -14.0079
  12   2.0000      -0.455802       -12.4030
  13   2.0000      -0.434414       -11.8210
  14   2.0000      -0.413635       -11.2556
  15   2.0000      -0.413545       -11.2531
  16   2.0000      -0.355687        -9.6787
  17   2.0000      -0.336763        -9.1638
  18   2.0000      -0.336741        -9.1632
  19   2.0000      -0.242787        -6.6066
  20   2.0000      -0.242713        -6.6046
  21   0.0000       0.006861         0.1867
  22   0.0000       0.006924         0.1884
  23   0.0000       0.093931         2.5560
  24   0.0000       0.147699         4.0191
  25   0.0000       0.147741         4.0202

MULLIKEN ATOMIC CHARGES
-----------------------
   0 C :   -0.126362
   1 C :   -0.126359
   2 C :   -0.126591
   3 C :   -0.126368
   4 C :   -0.126362
   5 C :   -0.126596
   6 H :    0.126457
   7 H :    0.126420
   8 H :    0.126453
   9 H :    0.126448
  10 H :    0.126406
  11 H :    0.126454
Sum of atomic charges:    0.0000000

LOEWDIN ATOMIC CHARGES
----------------------
   0 C :   -0.129899
   1 C :   -0.129900
   2 C :   -0.129927
   3 C :   -0.129891
   4 C :   -0.129921
   5 C :   -0.129946
   6 H :    0.129923
   7 H :    0.129916
   8 H :    0.129920
   9 H :    0.129907
  10 H :    0.129898
  11 H :    0.129920

  Mayer bond orders larger than 0.100000
B(  0-C ,  1-C ) :   1.4556 B(  0-C ,  5-C ) :   1.4560 B(  0-C , 11-H ) :   0.9306
B(  1-C ,  2-C ) :   1.4561 B(  1-C ,  6-H ) :   0.9307 B(  2-C ,  3-C ) :   1.4553
B(  2-C ,  7-H ) :   0.9306 B(  3-C ,  4-C ) :   1.4563 B(  3-C ,  8-H ) :   0.9306
B(  4-C ,  5-C ) :   1.4555 B(  4-C ,  9-H ) :   0.9306 B(  5-C , 10-H ) :   0.9306

FINAL SINGLE POINT ENERGY      -232.089673834097

DIPOLE MOMENT
-------------
                                X             Y             Z
Electronic contribution:     -0.00061      -0.00000       0.00117
Nuclear contribution   :      0.00072       0.00000      -0.00133
                        -----------------------------------------
Total Dipole Moment    :      0.00011       0.00000      -0.00017
                        -----------------------------------------
Magnitude (a.u.)       :      0.00020
Magnitude (Debye)      :      0.00051

VIBRATIONAL FREQUENCIES
-----------------------

Scaling factor for frequencies =  1.000000000  (already applied!)

   0:         0.00 cm**-1
   1:         0.00 cm**-1
   2:         0.00 cm**-1
   3:         0.00 cm**-1
   4:         0.00 cm**-1
   5:         0.00 cm**-1
   6:       414.82 cm**-1
   7:       415.14 cm**-1
   8:       621.27 cm**-1
   9:       621.46 cm**-1
  10:       693.67 cm**-1
  11:       717.78 cm**-1
  12:       864.52 cm**-1
  13:       864.65 cm**-1
  14:       969.25 cm**-1
  15:       969.41 cm**-1
  16:      1011.16 cm**-1
  17:      1019.53 cm**-1
  18:      1019.57 cm**-1
  19:      1068.01 cm**-1
  20:      1068.44 cm**-1
  21:      1184.67 cm**-1
  22:      1206.73 cm**-1
  23:      1206.97 cm**-1
  24:      1354.65 cm**-1
  25:      1387.24 cm**-1
  26:      1530.40 cm**-1
  27:      1530.57 cm**-1
  28:      1653.72 cm**-1
  29:      1654.28 cm**-1
  30:      3173.60 cm**-1
  31:      3183.10 cm**-1
  32:      3183.17 cm**-1
  33:      3198.99 cm**-1
  34:      3199.05 cm**-1
  35:      3209.64 cm**-1

IR SPECTRUM
-----------

 Mode   freq       eps      Int      T**2         TX        TY        TZ
       cm**-1   L/(mol*cm) km/mol    a.u.
----------------------------------------------------------------------------
  6:    414.82   0.000000    0.00  0.000000  ( 0.000000 -0.000018  0.000000)
  7:    415.14   0.000000    0.00  0.000000  ( 0.000000  0.000009 -0.000000)
  8:    621.27   0.000000    0.00  0.000000  (-0.000004 -0.000000 -0.000011)
  9:    621.46   0.000000    0.00  0.000000  ( 0.000013  0.000000  0.000002)
 10:    693.67   0.015161   76.62  0.006820  ( 0.000000 -0.082585  0.000000)
 11:    717.78   0.000000    0.00  0.000000  (-0.000000 -0.000015 -0.000000)
 12:    864.52   0.000000    0.00  0.000000  (-0.000000  0.000027 -0.000000)
 13:    864.65   0.000000    0.00  0.000000  ( 0.000000 -0.000026 -0.000000)
 14:    969.25   0.000000    0.00  0.000000  ( 0.000000 -0.000045 -0.000000)
 15:    969.41   0.000000    0.00  0.000000  (-0.000000 -0.000023  0.000000)
 16:   1011.16   0.000000    0.00  0.000000  (-0.000000  0.000002 -0.000000)
 17:   1019.53   0.000000    0.00  0.000000  (-0.000023  0.000000  0.000029)
 18:   1019.57   0.000000    0.00  0.000000  (-0.000016 -0.000000 -0.000002)
 19:   1068.01   0.000639    3.23  0.000187  ( 0.001875 -0.000000  0.013535)
 20:   1068.44   0.000635    3.21  0.000186  (-0.013495 -0.000000  0.001872)
 21:   1184.67   0.000000    0.00  0.000000  (-0.000036  0.000000 -0.000001)
 22:   1206.73   0.000000    0.00  0.000000  (-0.000006 -0.000000  0.000041)
 23:   1206.97   0.000000    0.00  0.000000  ( 0.000033 -0.000000 -0.000037)
 24:   1354.65   0.000000    0.00  0.000000  (-0.000078 -0.000000 -0.000023)
 25:   1387.24   0.000000    0.00  0.000000  (-0.000005  0.000000 -0.000004)
 26:   1530.40   0.001309    6.61  0.000267  (-0.000913 -0.000000 -0.016309)
 27:   1530.57   0.001304    6.59  0.000266  (-0.016278 -0.000000  0.000892)
 28:   1653.72   0.000000    0.00  0.000000  ( 0.000001  0.000000  0.000040)
 29:   1654.28   0.000000    0.00  0.000000  (-0.000030 -0.000000  0.000018)
 30:   3173.60   0.000000    0.00  0.000000  (-0.000062  0.000000 -0.000046)
 31:   3183.10   0.000000    0.00  0.000000  ( 0.000113  0.000000 -0.000027)
 32:   3183.17   0.000000    0.00  0.000000  ( 0.000063  0.000000  0.000137)
 33:   3198.99   0.010224   51.67  0.000997  (-0.026127 -0.000000  0.017739)
 34:   3199.05   0.010226   51.68  0.000998  ( 0.017717 -0.000000  0.026147)
 35:   3209.64   0.000001    0.00  0.000000  ( 0.000211 -0.000000 -0.000166)

--------------------------
THERMOCHEMISTRY AT 298.15K
--------------------------

Temperature         ... 298.15 K
Pressure            ... 1.00 atm
Total Mass          ... 78.11 AMU

Throughout the following assumptions are being made:
  (1) The electronic state is orbitally nondegenerate
  (2) There are no thermally accessible electronically excited states
  (3) Hindered rotations indicated by low frequency modes are not
      treated as such but are treated as vibrations and this may
      cause some error
  (4) All equations used are the standard statistical mechanics
      equations for an ideal gas
  (5) All vibrations are strictly harmonic

freq.     414.82  E(vib)   ...       0.19
freq.     415.14  E(vib)   ...       0.19
freq.     621.27  E(vib)   ...       0.09
freq.     621.46  E(vib)   ...       0.09
freq.     693.67  E(vib)   ...       0.07
freq.     717.78  E(vib)   ...       0.07
freq.     864.52  E(vib)   ...       0.04
freq.     864.65  E(vib)   ...       0.04
freq.     969.25  E(vib)   ...       0.03
freq.     969.41  E(vib)   ...       0.03
freq.    1011.16  E(vib)   ...       0.02
freq.    1019.53  E(vib)   ...       0.02
freq.    1019.57  E(vib)   ...       0.02
freq.    1068.01  E(vib)   ...       0.02
freq.    1068.44  E(vib)   ...       0.02
freq.    1184.67  E(vib)   ...       0.01
freq.    1206.73  E(vib)   ...       0.01
freq.    1206.97  E(vib)   ...       0.01
freq.    1354.65  E(vib)   ...       0.01
freq.    1387.24  E(vib)   ...       0.00
freq.    1530.40  E(vib)   ...       0.00
freq.    1530.57  E(vib)   ...       0.00
freq.    1653.72  E(vib)   ...       0.00
freq.    1654.28  E(vib)   ...       0.00
freq.    3173.60  E(vib)   ...       0.00
freq.    3183.10  E(vib)   ...       0.00
freq.    3183.17  E(vib)   ...       0.00
freq.    3198.99  E(vib)   ...       0.00
freq.    3199.05  E(vib)   ...       0.00
freq.    3209.64  E(vib)   ...       0.00

------------
INNER ENERGY
------------

The inner energy is: U= E(el) + E(ZPE) + E(vib) + E(rot) + E(trans)
    E(el)   - is the total energy from the electronic structure calculation
              = E(kin-el) + E(nuc-el) + E(el-el) + E(nuc-nuc)
    E(ZPE)  - the the zero temperature vibrational energy from the frequency calculation
    E(vib)  - the the finite temperature correction to E(ZPE) due to population
              of excited vibrational states
    E(rot)  - is the rotational thermal energy
    E(trans)- is the translational thermal energy

Summary of contributions to the inner energy U:
Electronic energy                ...   -232.08967383 Eh
Zero point energy                ...      0.10068470 Eh      63.18 kcal/mol
Thermal vibrational correction   ...      0.00155578 Eh       0.98 kcal/mol
Thermal rotational correction    ...      0.00141627 Eh       0.89 kcal/mol
Thermal translational correction ...      0.00141627 Eh       0.89 kcal/mol
-----------------------------------------------------------------------
Total thermal energy                   -231.98460081 Eh

Summary of corrections to the electronic energy:
(perhaps to be used in another calculation)
Total thermal correction                  0.00438833 Eh       2.75 kcal/mol
Non-thermal (ZPE) correction              0.10068470 Eh      63.18 kcal/mol
-----------------------------------------------------------------------
Total correction                          0.10507302 Eh      65.93 kcal/mol

--------
ENTHALPY
--------

The enthalpy is H = U + kB*T
                kB is Boltzmann's constant
Total free energy                 ...   -231.98460081 Eh
Thermal Enthalpy correction       ...      0.00094421 Eh       0.59 kcal/mol
-----------------------------------------------------------------------
Total Enthalpy                    ...   -231.98365660 Eh

Note: Rotational entropy computed according to Herzberg
Infrared and Raman Spectra, Chapter V,1, Van Nostrand Reinhold, 1945
Point Group:  Cs, Symmetry Number:   1
Rotational constants in cm-1:     0.189399     0.189330     0.094682

Vibrational entropy computed according to the QRRHO of S. Grimme
Chem.Eur.J. 2012 18 9955

-------
ENTROPY
-------

The entropy contributions are T*S = T*(S(el)+S(vib)+S(rot)+S(trans))
     S(el)   - electronic entropy
     S(vib)  - vibrational entropy
     S(rot)  - rotational entropy
     S(trans)- translational entropy
The entropies will be listed as multiplied by the temperature to get
units of energy

Electronic entropy                ...      0.00000000 Eh      0.00 kcal/mol
Vibrational entropy               ...      0.00208466 Eh      1.31 kcal/mol
Rotational entropy                ...      0.01219483 Eh      7.65 kcal/mol
Translational entropy             ...      0.01852142 Eh     11.62 kcal/mol
-----------------------------------------------------------------------
Final entropy term                ...      0.03280091 Eh     20.58 kcal/mol

In case the symmetry of your molecule has not been determined correctly
or in case you have a reason to use a different symmetry number we print
out the resulting rotational entropy values for sn=1,12 :
 --------------------------------------------------------
|  sn= 1 | S(rot)=       0.01219483 Eh      7.65 kcal/mol|
|  sn= 2 | S(rot)=       0.01154037 Eh      7.24 kcal/mol|
|  sn= 3 | S(rot)=       0.01115754 Eh      7.00 kcal/mol|
|  sn= 4 | S(rot)=       0.01088591 Eh      6.83 kcal/mol|
|  sn= 5 | S(rot)=       0.01067523 Eh      6.70 kcal/mol|
|  sn= 6 | S(rot)=       0.01050308 Eh      6.59 kcal/mol|
|  sn= 7 | S(rot)=       0.01035754 Eh      6.50 kcal/mol|
|  sn= 8 | S(rot)=       0.01023146 Eh      6.42 kcal/mol|
|  sn= 9 | S(rot)=       0.01012025 Eh      6.35 kcal/mol|
|  sn=10 | S(rot)=       0.01002077 Eh      6.29 kcal/mol|
|  sn=11 | S(rot)=       0.00993078 Eh      6.23 kcal/mol|
|  sn=12 | S(rot)=       0.00984862 Eh      6.18 kcal/mol|
 --------------------------------------------------------

-------------------
GIBBS FREE ENERGY
-------------------

The Gibbs free energy is G = H - T*S

Total enthalpy                    ...   -231.98365660 Eh
Total entropy correction          ...     -0.03280091 Eh    -20.58 kcal/mol
-----------------------------------------------------------------------
Final Gibbs free energy         ...   -232.01645751 Eh

For completeness - the Gibbs free energy minus the electronic energy
G-E(el)                           ...      0.07321632 Eh     45.94 kcal/mol

                             ****ORCA TERMINATED NORMALLY****
TOTAL RUN TIME: 0 days 0 hours 6 minutes 17 seconds 796 msec
