                         Program Version 5.0.3 -  RELEASE  -
|  1> ! HF 6-31g* OPT ANFREQ NoFrozenCore
|  2>
|  3> *xyz 0 1
|  4>
|  5>  C     0.000000     0.000000     0.000000
|  6>  C     0.000000     0.000000     1.400000
|  7>  C     1.212436     0.000000     2.100000
|  8>  C     2.424871     0.000000     1.400000
|  9>  C     2.424871     0.000000     0.000000
| 10>  C     1.212436     0.000000    -0.700000
| 11>  H    -0.943102     0.000000     1.944500
| 12>  H     1.212436     0.000000     3.189000
| 13>  H     3.367973     0.000000     1.944500
| 14>  H     3.367973     0.000000    -0.544500
| 15>  H     1.212436     0.000000    -1.789000
| 16>  H    -1.026719     0.000000    -0.363000
| 17> *
| 18>
| 19>                          ****END OF INPUT****
 Total Charge           Charge          ....    0
 Multiplicity           Mult            ....    1
 Number of Electrons    NEL             ....   42
FINAL SINGLE POINT ENERGY      -230.695765137002
FINAL SINGLE POINT ENERGY      -230.700749990841
FINAL SINGLE POINT ENERGY      -230.702220922439
FINAL SINGLE POINT ENERGY      -230.702473060062
FINAL SINGLE POINT ENERGY      -230.702489256388
                    ***********************HURRAY********************

CARTESIAN COORDINATES (ANGSTROEM)
---------------------------------
  C     -0.002256    0.000000    0.034190
  C      0.012147   -0.000000    1.420781
  C      1.219346    0.000000    2.101670
  C      2.413208    0.000000    1.396020
  C      2.398938   -0.000000    0.010083
  C      1.190971    0.000000   -0.671199
  H     -0.914259   -0.000000    1.967224
  H      1.230533    0.000000    3.177133
  H      3.350239    0.000000    1.923983
  H      3.324609   -0.000000   -0.537582
  H      1.181214    0.000000   -1.746673
  H     -0.939080    0.000000   -0.494130

 Multiplicity           Mult            ....    1
 Number of Electrons    NEL             ....   42
 Basis Dimension        Dim             ....   96

ORBITAL ENERGIES
----------------

  NO   OCC          E(Eh)            E(eV)
   0   2.0000     -11.227429      -305.5139
   1   2.0000     -11.226867      -305.4986
   2   2.0000     -11.226851      -305.4981
   3   2.0000     -11.225639      -305.4652
   4   2.0000     -11.225622      -305.4647
   5   2.0000     -11.225037      -305.4488
   6   2.0000      -1.147972       -31.2379
   7   2.0000      -1.011352       -27.5203
   8   2.0000      -1.011332       -27.5197
   9   2.0000      -0.820116       -22.3165
  10   2.0000      -0.820030       -22.3141
  11   2.0000      -0.707192       -19.2437
  12   2.0000      -0.640041       -17.4164
  13   2.0000      -0.613912       -16.7054
  14   2.0000      -0.584238       -15.8979
  15   2.0000      -0.584192       -15.8967
  16   2.0000      -0.497926       -13.5493
  17   2.0000      -0.489612       -13.3230
  18   2.0000      -0.489547       -13.3213
  19   2.0000      -0.330645        -8.9973
  20   2.0000      -0.330624        -8.9967
  21   0.0000       0.149596         4.0707
  22   0.0000       0.149657         4.0724
  23   0.0000       0.235943         6.4203
  24   0.0000       0.294524         8.0144
  25   0.0000       0.294545         8.0150

MULLIKEN ATOMIC CHARGES
-----------------------
   0 C :   -0.201318
   1 C :   -0.201311
   2 C :   -0.201310
   3 C :   -0.201325
   4 C :   -0.201358
   5 C :   -0.201357
   6 H :    0.201308
   7 H :    0.201372
   8 H :    0.201338
   9 H :    0.201283
  10 H :    0.201336
  11 H :    0.201342
Sum of atomic charges:    0.0000000

LOEWDIN ATOMIC CHARGES
----------------------
   0 C :   -0.137022
   1 C :   -0.137013
   2 C :   -0.137003
   3 C :   -0.137014
   4 C :   -0.137045
   5 C :   -0.137019
   6 H :    0.137011
   7 H :    0.137042
   8 H :    0.137023
   9 H :    0.136994
  10 H :    0.137020
  11 H :    0.137026

  Mayer bond orders larger than 0.100000
B(  0-C ,  1-C ) :   1.4517 B(  0-C ,  5-C ) :   1.4542 B(  0-C , 11-H ) :   0.9416
B(  1-C ,  2-C ) :   1.4542 B(  1-C ,  6-H ) :   0.9416 B(  2-C ,  3-C ) :   1.4517
B(  2-C ,  7-H ) :   0.9416 B(  3-C ,  4-C ) :   1.4543 B(  3-C ,  8-H ) :   0.9416
B(  4-C ,  5-C ) :   1.4517 B(  4-C ,  9-H ) :   0.9417 B(  5-C , 10-H ) :   0.9416

FINAL SINGLE POINT ENERGY      -230.702491835828

DIPOLE MOMENT
-------------
                                X             Y             Z
Electronic contribution:     -0.00066       0.00000       0.00117
Nuclear contribution   :      0.00078      -0.00000      -0.00138
                        -----------------------------------------
Total Dipole Moment    :      0.00012      -0.00000      -0.00021
                        -----------------------------------------
Magnitude (a.u.)       :      0.00024
Magnitude (Debye)      :      0.00061

VIBRATIONAL FREQUENCIES
-----------------------

Scaling factor for frequencies =  1.000000000  (already applied!)

   0:         0.00 cm**-1
   1:         0.00 cm**-1
   2:         0.00 cm**-1
   3:         0.00 cm**-1
   4:         0.00 cm**-1
   5:         0.00 cm**-1
   6:       453.39 cm**-1
   7:       453.53 cm**-1
   8:       665.24 cm**-1
   9:       665.29 cm**-1
  10:       764.67 cm**-1
  11:       776.71 cm**-1
  12:       961.37 cm**-1
  13:       961.40 cm**-1
  14:      1083.66 cm**-1
  15:      1096.09 cm**-1
  16:      1100.00 cm**-1
  17:      1100.15 cm**-1
  18:      1136.21 cm**-1
  19:      1142.06 cm**-1
  20:      1142.13 cm**-1
  21:      1198.99 cm**-1
  22:      1294.20 cm**-1
  23:      1294.55 cm**-1
  24:      1353.75 cm**-1
  25:      1508.87 cm**-1
  26:      1652.73 cm**-1
  27:      1652.80 cm**-1
  28:      1797.97 cm**-1
  29:      1798.34 cm**-1
  30:      3346.17 cm**-1
  31:      3357.23 cm**-1
  32:      3357.46 cm**-1
  33:      3375.95 cm**-1
  34:      3376.17 cm**-1
  35:      3388.10 cm**-1

IR SPECTRUM
-----------

 Mode   freq       eps      Int      T**2         TX        TY        TZ
       cm**-1   L/(mol*cm) km/mol    a.u.
----------------------------------------------------------------------------
  6:    453.39   0.000000    0.00  0.000000  (-0.000000 -0.000027  0.000000)
  7:    453.53   0.000000    0.00  0.000000  (-0.000000  0.000007 -0.000000)
  8:    665.24   0.000000    0.00  0.000000  ( 0.000005 -0.000000  0.000023)
  9:    665.29   0.000000    0.00  0.000000  (-0.000022  0.000000  0.000010)
 10:    764.67   0.021037  106.31  0.008585  (-0.000000  0.092657 -0.000000)
 11:    776.71   0.000000    0.00  0.000000  (-0.000000  0.000016  0.000000)
 12:    961.37   0.000000    0.00  0.000000  (-0.000000  0.000025  0.000000)
 13:    961.40   0.000000    0.00  0.000000  ( 0.000000 -0.000012 -0.000000)
 14:   1083.66   0.000000    0.00  0.000000  (-0.000009 -0.000000  0.000011)
 15:   1096.09   0.000000    0.00  0.000000  (-0.000019 -0.000000  0.000012)
 16:   1100.00   0.000000    0.00  0.000000  ( 0.000000 -0.000008 -0.000000)
 17:   1100.15   0.000000    0.00  0.000000  (-0.000000  0.000015  0.000000)
 18:   1136.21   0.000000    0.00  0.000000  (-0.000000 -0.000002  0.000000)
 19:   1142.06   0.000577    2.92  0.000158  (-0.000098 -0.000000  0.012557)
 20:   1142.13   0.000574    2.90  0.000157  (-0.012519  0.000000 -0.000108)
 21:   1198.99   0.000000    0.00  0.000000  ( 0.000041  0.000000  0.000014)
 22:   1294.20   0.000000    0.00  0.000000  ( 0.000005 -0.000000  0.000074)
 23:   1294.55   0.000000    0.00  0.000000  ( 0.000064 -0.000000 -0.000047)
 24:   1353.75   0.000000    0.00  0.000000  (-0.000009 -0.000000 -0.000018)
 25:   1508.87   0.000000    0.00  0.000000  (-0.000013 -0.000000 -0.000008)
 26:   1652.73   0.002306   11.66  0.000436  ( 0.014791  0.000000 -0.014722)
 27:   1652.80   0.002310   11.67  0.000436  ( 0.014708  0.000000  0.014825)
 28:   1797.97   0.000000    0.00  0.000000  ( 0.000022 -0.000000  0.000091)
 29:   1798.34   0.000000    0.00  0.000000  (-0.000087  0.000000  0.000031)
 30:   3346.17   0.000000    0.00  0.000000  (-0.000142  0.000000  0.000158)
 31:   3357.23   0.000000    0.00  0.000000  ( 0.000087  0.000000  0.000000)
 32:   3357.46   0.000000    0.00  0.000000  ( 0.000010  0.000000 -0.000021)
 33:   3375.95   0.012401   62.67  0.001146  (-0.031379  0.000000  0.012716)
 34:   3376.17   0.012382   62.58  0.001145  ( 0.012704 -0.000000  0.031355)
 35:   3388.10   0.000000    0.00  0.000000  ( 0.000036  0.000000 -0.000074)

--------------------------
THERMOCHEMISTRY AT 298.15K
--------------------------

Temperature         ... 298.15 K
Pressure            ... 1.00 atm
Total Mass          ... 78.11 AMU

Throughout the following assumptions are being made:
  (1) The electronic state is orbitally nondegenerate
  (2) There are no thermally accessible electronically excited states
  (3) Hindered rotations indicated by low frequency modes are not
      treated as such but are treated as vibrations and this may
      cause some error
  (4) All equations used are the standard statistical mechanics
      equations for an ideal gas
  (5) All vibrations are strictly harmonic

freq.     453.39  E(vib)   ...       0.16
freq.     453.53  E(vib)   ...       0.16
freq.     665.24  E(vib)   ...       0.08
freq.     665.29  E(vib)   ...       0.08
freq.     764.67  E(vib)   ...       0.06
freq.     776.71  E(vib)   ...       0.05
freq.     961.37  E(vib)   ...       0.03
freq.     961.40  E(vib)   ...       0.03
freq.    1083.66  E(vib)   ...       0.02
freq.    1096.09  E(vib)   ...       0.02
freq.    1100.00  E(vib)   ...       0.02
freq.    1100.15  E(vib)   ...       0.02
freq.    1136.21  E(vib)   ...       0.01
freq.    1142.06  E(vib)   ...       0.01
freq.    1142.13  E(vib)   ...       0.01
freq.    1198.99  E(vib)   ...       0.01
freq.    1294.20  E(vib)   ...       0.01
freq.    1294.55  E(vib)   ...       0.01
freq.    1353.75  E(vib)   ...       0.01
freq.    1508.87  E(vib)   ...       0.00
freq.    1652.73  E(vib)   ...       0.00
freq.    1652.80  E(vib)   ...       0.00
freq.    1797.97  E(vib)   ...       0.00
freq.    1798.34  E(vib)   ...       0.00
freq.    3346.17  E(vib)   ...       0.00
freq.    3357.23  E(vib)   ...       0.00
freq.    3357.46  E(vib)   ...       0.00
freq.    3375.95  E(vib)   ...       0.00
freq.    3376.17  E(vib)   ...       0.00
freq.    3388.10  E(vib)   ...       0.00

------------
INNER ENERGY
------------

The inner energy is: U= E(el) + E(ZPE) + E(vib) + E(rot) + E(trans)
    E(el)   - is the total energy from the electronic structure calculation
              = E(kin-el) + E(nuc-el) + E(el-el) + E(nuc-nuc)
    E(ZPE)  - the the zero temperature vibrational energy from the frequency calculation
    E(vib)  - the the finite temperature correction to E(ZPE) due to population
              of excited vibrational states
    E(rot)  - is the rotational thermal energy
    E(trans)- is the translational thermal energy

Summary of contributions to the inner energy U:
Electronic energy                ...   -230.70249184 Eh
Zero point energy                ...      0.10765519 Eh      67.55 kcal/mol
Thermal vibrational correction   ...      0.00126388 Eh       0.79 kcal/mol
Thermal rotational correction    ...      0.00141627 Eh       0.89 kcal/mol
Thermal translational correction ...      0.00141627 Eh       0.89 kcal/mol
-----------------------------------------------------------------------
Total thermal energy                   -230.59074022 Eh

Summary of corrections to the electronic energy:
(perhaps to be used in another calculation)
Total thermal correction                  0.00409643 Eh       2.57 kcal/mol
Non-thermal (ZPE) correction              0.10765519 Eh      67.55 kcal/mol
-----------------------------------------------------------------------
Total correction                          0.11175161 Eh      70.13 kcal/mol

--------
ENTHALPY
--------

The enthalpy is H = U + kB*T
                kB is Boltzmann's constant
Total free energy                 ...   -230.59074022 Eh
Thermal Enthalpy correction       ...      0.00094421 Eh       0.59 kcal/mol
-----------------------------------------------------------------------
Total Enthalpy                    ...   -230.58979601 Eh

Note: Rotational entropy computed according to Herzberg
Infrared and Raman Spectra, Chapter V,1, Van Nostrand Reinhold, 1945
Point Group:  Cs, Symmetry Number:   1
Rotational constants in cm-1:     0.192477     0.192450     0.096232

Vibrational entropy computed according to the QRRHO of S. Grimme
Chem.Eur.J. 2012 18 9955

-------
ENTROPY
-------

The entropy contributions are T*S = T*(S(el)+S(vib)+S(rot)+S(trans))
     S(el)   - electronic entropy
     S(vib)  - vibrational entropy
     S(rot)  - rotational entropy
     S(trans)- translational entropy
The entropies will be listed as multiplied by the temperature to get
units of energy

Electronic entropy                ...      0.00000000 Eh      0.00 kcal/mol
Vibrational entropy               ...      0.00167317 Eh      1.05 kcal/mol
Rotational entropy                ...      0.01217184 Eh      7.64 kcal/mol
Translational entropy             ...      0.01852142 Eh     11.62 kcal/mol
-----------------------------------------------------------------------
Final entropy term                ...      0.03236643 Eh     20.31 kcal/mol

In case the symmetry of your molecule has not been determined correctly
or in case you have a reason to use a different symmetry number we print
out the resulting rotational entropy values for sn=1,12 :
 --------------------------------------------------------
|  sn= 1 | S(rot)=       0.01217184 Eh      7.64 kcal/mol|
|  sn= 2 | S(rot)=       0.01151738 Eh      7.23 kcal/mol|
|  sn= 3 | S(rot)=       0.01113455 Eh      6.99 kcal/mol|
|  sn= 4 | S(rot)=       0.01086293 Eh      6.82 kcal/mol|
|  sn= 5 | S(rot)=       0.01065224 Eh      6.68 kcal/mol|
|  sn= 6 | S(rot)=       0.01048010 Eh      6.58 kcal/mol|
|  sn= 7 | S(rot)=       0.01033455 Eh      6.49 kcal/mol|
|  sn= 8 | S(rot)=       0.01020847 Eh      6.41 kcal/mol|
|  sn= 9 | S(rot)=       0.01009726 Eh      6.34 kcal/mol|
|  sn=10 | S(rot)=       0.00999778 Eh      6.27 kcal/mol|
|  sn=11 | S(rot)=       0.00990779 Eh      6.22 kcal/mol|
|  sn=12 | S(rot)=       0.00982564 Eh      6.17 kcal/mol|
 --------------------------------------------------------

-------------------
GIBBS FREE ENERGY
-------------------

The Gibbs free energy is G = H - T*S

Total enthalpy                    ...   -230.58979601 Eh
Total entropy correction          ...     -0.03236643 Eh    -20.31 kcal/mol
-----------------------------------------------------------------------
Final Gibbs free energy         ...   -230.62216244 Eh

For completeness - the Gibbs free energy minus the electronic energy
G-E(el)                           ...      0.08032939 Eh     50.41 kcal/mol

                             ****ORCA TERMINATED NORMALLY****
TOTAL RUN TIME: 0 days 0 hours 3 minutes 10 seconds 366 msec
